+ 1 0 2 tcp 1000 ------- 1 0.0 3.0 0 0 0 0x0 0 0
- 1 0 2 tcp 1000 ------- 1 0.0 3.0 0 0 0 0x0 0 0
r 1.001 0 2 tcp 1000 ------- 1 0.0 3.0 0 0 0 0x0 0 0
+ 1.001 2 3 tcp 1000 ------- 1 0.0 3.0 0 0 0 0x0 0 0
- 1.001 2 3 tcp 1000 ------- 1 0.0 3.0 0 0 0 0x0 0 0
r 1.111 2 3 tcp 1000 ------- 1 0.0 3.0 0 0 0 0x0 0 0
+ 1.211 3 2 ack 40 ------- 1 3.0 0.0 0 1 0 0x0 0 0
- 1.211 3 2 ack 40 ------- 1 3.0 0.0 0 1 0 0x0 0 0
r 1.3114 3 2 ack 40 ------- 1 3.0 0.0 0 1 0 0x0 0 0
+ 1.3114 2 0 ack 40 ------- 1 3.0 0.0 0 1 0 0x0 0 0
- 1.3114 2 0 ack 40 ------- 1 3.0 0.0 0 1 0 0x0 0 0
r 1.31144 2 0 ack 40 ------- 1 3.0 0.0 0 1 0 0x0 0 0
+ 1.31144 0 2 tcp 1000 ------- 1 0.0 3.0 1 2 0 0x0 0 0
- 1.31144 0 2 tcp 1000 ------- 1 0.0 3.0 1 2 0 0x0 0 0
+ 1.31144 0 2 tcp 1000 ------- 1 0.0 3.0 2 3 0 0x0 0 0
r 1.31244 0 2 tcp 1000 ------- 1 0.0 3.0 1 2 0 0x0 0 0
+ 1.31244 2 3 tcp 1000 ------- 1 0.0 3.0 1 2 0 0x0 0 0
- 1.31244 2 3 tcp 1000 ------- 1 0.0 3.0 1 2 0 0x0 0 0
- 1.31244 0 2 tcp 1000 ------- 1 0.0 3.0 2 3 0 0x0 0 0
r 1.31344 0 2 tcp 1000 ------- 1 0.0 3.0 2 3 0 0x0 0 0
+ 1.31344 2 3 tcp 1000 ------- 1 0.0 3.0 2 3 0 0x0 0 0
- 1.32244 2 3 tcp 1000 ------- 1 0.0 3.0 2 3 0 0x0 0 0
r 1.42244 2 3 tcp 1000 ------- 1 0.0 3.0 1 2 0 0x0 0 0
r 1.43244 2 3 tcp 1000 ------- 1 0.0 3.0 2 3 0 0x0 0 0
+ 1.43244 3 2 ack 40 ------- 1 3.0 0.0 2 4 0 0x0 0 0
- 1.43244 3 2 ack 40 ------- 1 3.0 0.0 2 4 0 0x0 0 0
r 1.53284 3 2 ack 40 ------- 1 3.0 0.0 2 4 0 0x0 0 0
+ 1.53284 2 0 ack 40 ------- 1 3.0 0.0 2 4 0 0x0 0 0
- 1.53284 2 0 ack 40 ------- 1 3.0 0.0 2 4 0 0x0 0 0
r 1.53288 2 0 ack 40 ------- 1 3.0 0.0 2 4 0 0x0 0 0
+ 1.53288 0 2 tcp 1000 ------- 1 0.0 3.0 3 5 0 0x0 0 0
- 1.53288 0 2 tcp 1000 ------- 1 0.0 3.0 3 5 0 0x0 0 0
+ 1.53288 0 2 tcp 1000 ------- 1 0.0 3.0 4 6 0 0x0 0 0
+ 1.53288 0 2 tcp 1000 ------- 1 0.0 3.0 5 7 0 0x0 0 0
r 1.53388 0 2 tcp 1000 ------- 1 0.0 3.0 3 5 0 0x0 0 0
+ 1.53388 2 3 tcp 1000 ------- 1 0.0 3.0 3 5 0 0x0 0 0
- 1.53388 2 3 tcp 1000 ------- 1 0.0 3.0 3 5 0 0x0 0 0
- 1.53388 0 2 tcp 1000 ------- 1 0.0 3.0 4 6 0 0x0 0 0
r 1.53488 0 2 tcp 1000 ------- 1 0.0 3.0 4 6 0 0x0 0 0
+ 1.53488 2 3 tcp 1000 ------- 1 0.0 3.0 4 6 0 0x0 0 0
- 1.53488 0 2 tcp 1000 ------- 1 0.0 3.0 5 7 0 0x0 0 0
r 1.53588 0 2 tcp 1000 ------- 1 0.0 3.0 5 7 0 0x0 0 0
+ 1.53588 2 3 tcp 1000 ------- 1 0.0 3.0 5 7 0 0x0 0 0
- 1.54388 2 3 tcp 1000 ------- 1 0.0 3.0 4 6 0 0x0 0 0
- 1.55388 2 3 tcp 1000 ------- 1 0.0 3.0 5 7 0 0x0 0 0
r 1.64388 2 3 tcp 1000 ------- 1 0.0 3.0 3 5 0 0x0 0 0
r 1.65388 2 3 tcp 1000 ------- 1 0.0 3.0 4 6 0 0x0 0 0
+ 1.65388 3 2 ack 40 ------- 1 3.0 0.0 4 8 0 0x0 0 0
- 1.65388 3 2 ack 40 ------- 1 3.0 0.0 4 8 0 0x0 0 0
r 1.66388 2 3 tcp 1000 ------- 1 0.0 3.0 5 7 0 0x0 0 0
r 1.75428 3 2 ack 40 ------- 1 3.0 0.0 4 8 0 0x0 0 0
+ 1.75428 2 0 ack 40 ------- 1 3.0 0.0 4 8 0 0x0 0 0
- 1.75428 2 0 ack 40 ------- 1 3.0 0.0 4 8 0 0x0 0 0
r 1.75432 2 0 ack 40 ------- 1 3.0 0.0 4 8 0 0x0 0 0
+ 1.75432 0 2 tcp 1000 ------- 1 0.0 3.0 6 9 0 0x0 0 0
- 1.75432 0 2 tcp 1000 ------- 1 0.0 3.0 6 9 0 0x0 0 0
+ 1.75432 0 2 tcp 1000 ------- 1 0.0 3.0 7 10 0 0x0 0 0
+ 1.75432 0 2 tcp 1000 ------- 1 0.0 3.0 8 11 0 0x0 0 0
r 1.75532 0 2 tcp 1000 ------- 1 0.0 3.0 6 9 0 0x0 0 0
+ 1.75532 2 3 tcp 1000 ------- 1 0.0 3.0 6 9 0 0x0 0 0
- 1.75532 2 3 tcp 1000 ------- 1 0.0 3.0 6 9 0 0x0 0 0
- 1.75532 0 2 tcp 1000 ------- 1 0.0 3.0 7 10 0 0x0 0 0
r 1.75632 0 2 tcp 1000 ------- 1 0.0 3.0 7 10 0 0x0 0 0
+ 1.75632 2 3 tcp 1000 ------- 1 0.0 3.0 7 10 0 0x0 0 0
- 1.75632 0 2 tcp 1000 ------- 1 0.0 3.0 8 11 0 0x0 0 0
r 1.75732 0 2 tcp 1000 ------- 1 0.0 3.0 8 11 0 0x0 0 0
+ 1.75732 2 3 tcp 1000 ------- 1 0.0 3.0 8 11 0 0x0 0 0
+ 1.76388 3 2 ack 40 ------- 1 3.0 0.0 5 12 0 0x0 0 0
- 1.76388 3 2 ack 40 ------- 1 3.0 0.0 5 12 0 0x0 0 0
- 1.76532 2 3 tcp 1000 ------- 1 0.0 3.0 7 10 0 0x0 0 0
- 1.77532 2 3 tcp 1000 ------- 1 0.0 3.0 8 11 0 0x0 0 0
r 1.86428 3 2 ack 40 ------- 1 3.0 0.0 5 12 0 0x0 0 0
+ 1.86428 2 0 ack 40 ------- 1 3.0 0.0 5 12 0 0x0 0 0
- 1.86428 2 0 ack 40 ------- 1 3.0 0.0 5 12 0 0x0 0 0
r 1.86432 2 0 ack 40 ------- 1 3.0 0.0 5 12 0 0x0 0 0
+ 1.86432 0 2 tcp 1000 ------- 1 0.0 3.0 9 13 0 0x0 0 0
- 1.86432 0 2 tcp 1000 ------- 1 0.0 3.0 9 13 0 0x0 0 0
+ 1.86432 0 2 tcp 1000 ------- 1 0.0 3.0 10 14 0 0x0 0 0
r 1.86532 2 3 tcp 1000 ------- 1 0.0 3.0 6 9 0 0x0 0 0
r 1.86532 0 2 tcp 1000 ------- 1 0.0 3.0 9 13 0 0x0 0 0
+ 1.86532 2 3 tcp 1000 ------- 1 0.0 3.0 9 13 0 0x0 0 0
- 1.86532 2 3 tcp 1000 ------- 1 0.0 3.0 9 13 0 0x0 0 0
- 1.86532 0 2 tcp 1000 ------- 1 0.0 3.0 10 14 0 0x0 0 0
r 1.86632 0 2 tcp 1000 ------- 1 0.0 3.0 10 14 0 0x0 0 0
+ 1.86632 2 3 tcp 1000 ------- 1 0.0 3.0 10 14 0 0x0 0 0
r 1.87532 2 3 tcp 1000 ------- 1 0.0 3.0 7 10 0 0x0 0 0
+ 1.87532 3 2 ack 40 ------- 1 3.0 0.0 7 15 0 0x0 0 0
- 1.87532 3 2 ack 40 ------- 1 3.0 0.0 7 15 0 0x0 0 0
- 1.87532 2 3 tcp 1000 ------- 1 0.0 3.0 10 14 0 0x0 0 0
r 1.88532 2 3 tcp 1000 ------- 1 0.0 3.0 8 11 0 0x0 0 0
r 1.97532 2 3 tcp 1000 ------- 1 0.0 3.0 9 13 0 0x0 0 0
+ 1.97532 3 2 ack 40 ------- 1 3.0 0.0 9 16 0 0x0 0 0
- 1.97532 3 2 ack 40 ------- 1 3.0 0.0 9 16 0 0x0 0 0
r 1.97572 3 2 ack 40 ------- 1 3.0 0.0 7 15 0 0x0 0 0
+ 1.97572 2 0 ack 40 ------- 1 3.0 0.0 7 15 0 0x0 0 0
- 1.97572 2 0 ack 40 ------- 1 3.0 0.0 7 15 0 0x0 0 0
r 1.97576 2 0 ack 40 ------- 1 3.0 0.0 7 15 0 0x0 0 0
+ 1.97576 0 2 tcp 1000 ------- 1 0.0 3.0 11 17 0 0x0 0 0
- 1.97576 0 2 tcp 1000 ------- 1 0.0 3.0 11 17 0 0x0 0 0
+ 1.97576 0 2 tcp 1000 ------- 1 0.0 3.0 12 18 0 0x0 0 0
+ 1.97576 0 2 tcp 1000 ------- 1 0.0 3.0 13 19 0 0x0 0 0
r 1.97676 0 2 tcp 1000 ------- 1 0.0 3.0 11 17 0 0x0 0 0
+ 1.97676 2 3 tcp 1000 ------- 1 0.0 3.0 11 17 0 0x0 0 0
- 1.97676 2 3 tcp 1000 ------- 1 0.0 3.0 11 17 0 0x0 0 0
- 1.97676 0 2 tcp 1000 ------- 1 0.0 3.0 12 18 0 0x0 0 0
r 1.97776 0 2 tcp 1000 ------- 1 0.0 3.0 12 18 0 0x0 0 0
+ 1.97776 2 3 tcp 1000 ------- 1 0.0 3.0 12 18 0 0x0 0 0
- 1.97776 0 2 tcp 1000 ------- 1 0.0 3.0 13 19 0 0x0 0 0
r 1.97876 0 2 tcp 1000 ------- 1 0.0 3.0 13 19 0 0x0 0 0
+ 1.97876 2 3 tcp 1000 ------- 1 0.0 3.0 13 19 0 0x0 0 0
r 1.98532 2 3 tcp 1000 ------- 1 0.0 3.0 10 14 0 0x0 0 0
- 1.98676 2 3 tcp 1000 ------- 1 0.0 3.0 12 18 0 0x0 0 0
- 1.99676 2 3 tcp 1000 ------- 1 0.0 3.0 13 19 0 0x0 0 0
r 2.07572 3 2 ack 40 ------- 1 3.0 0.0 9 16 0 0x0 0 0
+ 2.07572 2 0 ack 40 ------- 1 3.0 0.0 9 16 0 0x0 0 0
- 2.07572 2 0 ack 40 ------- 1 3.0 0.0 9 16 0 0x0 0 0
r 2.07576 2 0 ack 40 ------- 1 3.0 0.0 9 16 0 0x0 0 0
+ 2.07576 0 2 tcp 1000 ------- 1 0.0 3.0 14 20 0 0x0 0 0
- 2.07576 0 2 tcp 1000 ------- 1 0.0 3.0 14 20 0 0x0 0 0
+ 2.07576 0 2 tcp 1000 ------- 1 0.0 3.0 15 21 0 0x0 0 0
+ 2.07576 0 2 tcp 1000 ------- 1 0.0 3.0 16 22 0 0x0 0 0
r 2.07676 0 2 tcp 1000 ------- 1 0.0 3.0 14 20 0 0x0 0 0
+ 2.07676 2 3 tcp 1000 ------- 1 0.0 3.0 14 20 0 0x0 0 0
- 2.07676 2 3 tcp 1000 ------- 1 0.0 3.0 14 20 0 0x0 0 0
- 2.07676 0 2 tcp 1000 ------- 1 0.0 3.0 15 21 0 0x0 0 0
r 2.07776 0 2 tcp 1000 ------- 1 0.0 3.0 15 21 0 0x0 0 0
+ 2.07776 2 3 tcp 1000 ------- 1 0.0 3.0 15 21 0 0x0 0 0
- 2.07776 0 2 tcp 1000 ------- 1 0.0 3.0 16 22 0 0x0 0 0
r 2.07876 0 2 tcp 1000 ------- 1 0.0 3.0 16 22 0 0x0 0 0
+ 2.07876 2 3 tcp 1000 ------- 1 0.0 3.0 16 22 0 0x0 0 0
+ 2.08532 3 2 ack 40 ------- 1 3.0 0.0 10 23 0 0x0 0 0
- 2.08532 3 2 ack 40 ------- 1 3.0 0.0 10 23 0 0x0 0 0
- 2.08676 2 3 tcp 1000 ------- 1 0.0 3.0 15 21 0 0x0 0 0
r 2.08676 2 3 tcp 1000 ------- 1 0.0 3.0 11 17 0 0x0 0 0
- 2.09676 2 3 tcp 1000 ------- 1 0.0 3.0 16 22 0 0x0 0 0
r 2.09676 2 3 tcp 1000 ------- 1 0.0 3.0 12 18 0 0x0 0 0
+ 2.09676 3 2 ack 40 ------- 1 3.0 0.0 12 24 0 0x0 0 0
- 2.09676 3 2 ack 40 ------- 1 3.0 0.0 12 24 0 0x0 0 0
r 2.10676 2 3 tcp 1000 ------- 1 0.0 3.0 13 19 0 0x0 0 0
r 2.18572 3 2 ack 40 ------- 1 3.0 0.0 10 23 0 0x0 0 0
+ 2.18572 2 0 ack 40 ------- 1 3.0 0.0 10 23 0 0x0 0 0
- 2.18572 2 0 ack 40 ------- 1 3.0 0.0 10 23 0 0x0 0 0
r 2.18576 2 0 ack 40 ------- 1 3.0 0.0 10 23 0 0x0 0 0
+ 2.18576 0 2 tcp 1000 ------- 1 0.0 3.0 17 25 0 0x0 0 0
- 2.18576 0 2 tcp 1000 ------- 1 0.0 3.0 17 25 0 0x0 0 0
+ 2.18576 0 2 tcp 1000 ------- 1 0.0 3.0 18 26 0 0x0 0 0
r 2.18676 2 3 tcp 1000 ------- 1 0.0 3.0 14 20 0 0x0 0 0
+ 2.18676 3 2 ack 40 ------- 1 3.0 0.0 14 27 0 0x0 0 0
- 2.18676 3 2 ack 40 ------- 1 3.0 0.0 14 27 0 0x0 0 0
r 2.18676 0 2 tcp 1000 ------- 1 0.0 3.0 17 25 0 0x0 0 0
d 2.18676 2 3 tcp 1000 ------- 1 0.0 3.0 17 25 0 0x0 0 0
- 2.18676 0 2 tcp 1000 ------- 1 0.0 3.0 18 26 0 0x0 0 0
r 2.18776 0 2 tcp 1000 ------- 1 0.0 3.0 18 26 0 0x0 0 0
+ 2.18776 2 3 tcp 1000 ------- 1 0.0 3.0 18 26 0 0x0 0 0
- 2.18776 2 3 tcp 1000 ------- 1 0.0 3.0 18 26 0 0x0 0 0
r 2.19676 2 3 tcp 1000 ------- 1 0.0 3.0 15 21 0 0x0 0 0
r 2.19716 3 2 ack 40 ------- 1 3.0 0.0 12 24 0 0x0 0 0
+ 2.19716 2 0 ack 40 ------- 1 3.0 0.0 12 24 0 0x0 0 0
- 2.19716 2 0 ack 40 ------- 1 3.0 0.0 12 24 0 0x0 0 0
r 2.1972 2 0 ack 40 ------- 1 3.0 0.0 12 24 0 0x0 0 0
+ 2.1972 0 2 tcp 1000 ------- 1 0.0 3.0 19 28 0 0x0 0 0
- 2.1972 0 2 tcp 1000 ------- 1 0.0 3.0 19 28 0 0x0 0 0
+ 2.1972 0 2 tcp 1000 ------- 1 0.0 3.0 20 29 0 0x0 0 0
r 2.1982 0 2 tcp 1000 ------- 1 0.0 3.0 19 28 0 0x0 0 0
+ 2.1982 2 3 tcp 1000 ------- 1 0.0 3.0 19 28 0 0x0 0 0
- 2.1982 2 3 tcp 1000 ------- 1 0.0 3.0 19 28 0 0x0 0 0
- 2.1982 0 2 tcp 1000 ------- 1 0.0 3.0 20 29 0 0x0 0 0
r 2.1992 0 2 tcp 1000 ------- 1 0.0 3.0 20 29 0 0x0 0 0
+ 2.1992 2 3 tcp 1000 ------- 1 0.0 3.0 20 29 0 0x0 0 0
r 2.20676 2 3 tcp 1000 ------- 1 0.0 3.0 16 22 0 0x0 0 0
+ 2.20676 3 2 ack 40 ------- 1 3.0 0.0 16 30 0 0x0 0 0
- 2.20676 3 2 ack 40 ------- 1 3.0 0.0 16 30 0 0x0 0 0
- 2.2082 2 3 tcp 1000 ------- 1 0.0 3.0 20 29 0 0x0 0 0
r 2.28716 3 2 ack 40 ------- 1 3.0 0.0 14 27 0 0x0 0 0
+ 2.28716 2 0 ack 40 ------- 1 3.0 0.0 14 27 0 0x0 0 0
- 2.28716 2 0 ack 40 ------- 1 3.0 0.0 14 27 0 0x0 0 0
r 2.2872 2 0 ack 40 ------- 1 3.0 0.0 14 27 0 0x0 0 0
+ 2.2872 0 2 tcp 1000 ------- 1 0.0 3.0 21 31 0 0x0 0 0
- 2.2872 0 2 tcp 1000 ------- 1 0.0 3.0 21 31 0 0x0 0 0
+ 2.2872 0 2 tcp 1000 ------- 1 0.0 3.0 22 32 0 0x0 0 0
r 2.2882 0 2 tcp 1000 ------- 1 0.0 3.0 21 31 0 0x0 0 0
+ 2.2882 2 3 tcp 1000 ------- 1 0.0 3.0 21 31 0 0x0 0 0
- 2.2882 2 3 tcp 1000 ------- 1 0.0 3.0 21 31 0 0x0 0 0
- 2.2882 0 2 tcp 1000 ------- 1 0.0 3.0 22 32 0 0x0 0 0
r 2.2892 0 2 tcp 1000 ------- 1 0.0 3.0 22 32 0 0x0 0 0
+ 2.2892 2 3 tcp 1000 ------- 1 0.0 3.0 22 32 0 0x0 0 0
r 2.29776 2 3 tcp 1000 ------- 1 0.0 3.0 18 26 0 0x0 0 0
+ 2.29776 3 2 ack 40 ------- 1 3.0 0.0 16 33 0 0x0 0 0
- 2.29776 3 2 ack 40 ------- 1 3.0 0.0 16 33 0 0x0 0 0
- 2.2982 2 3 tcp 1000 ------- 1 0.0 3.0 22 32 0 0x0 0 0
r 2.30716 3 2 ack 40 ------- 1 3.0 0.0 16 30 0 0x0 0 0
+ 2.30716 2 0 ack 40 ------- 1 3.0 0.0 16 30 0 0x0 0 0
- 2.30716 2 0 ack 40 ------- 1 3.0 0.0 16 30 0 0x0 0 0
r 2.3072 2 0 ack 40 ------- 1 3.0 0.0 16 30 0 0x0 0 0
+ 2.3072 0 2 tcp 1000 ------- 1 0.0 3.0 23 34 0 0x0 0 0
- 2.3072 0 2 tcp 1000 ------- 1 0.0 3.0 23 34 0 0x0 0 0
+ 2.3072 0 2 tcp 1000 ------- 1 0.0 3.0 24 35 0 0x0 0 0
r 2.3082 0 2 tcp 1000 ------- 1 0.0 3.0 23 34 0 0x0 0 0
+ 2.3082 2 3 tcp 1000 ------- 1 0.0 3.0 23 34 0 0x0 0 0
- 2.3082 2 3 tcp 1000 ------- 1 0.0 3.0 23 34 0 0x0 0 0
- 2.3082 0 2 tcp 1000 ------- 1 0.0 3.0 24 35 0 0x0 0 0
r 2.3082 2 3 tcp 1000 ------- 1 0.0 3.0 19 28 0 0x0 0 0
+ 2.3082 3 2 ack 40 ------- 1 3.0 0.0 16 36 0 0x0 0 0
- 2.3082 3 2 ack 40 ------- 1 3.0 0.0 16 36 0 0x0 0 0
r 2.3092 0 2 tcp 1000 ------- 1 0.0 3.0 24 35 0 0x0 0 0
+ 2.3092 2 3 tcp 1000 ------- 1 0.0 3.0 24 35 0 0x0 0 0
- 2.3182 2 3 tcp 1000 ------- 1 0.0 3.0 24 35 0 0x0 0 0
r 2.3182 2 3 tcp 1000 ------- 1 0.0 3.0 20 29 0 0x0 0 0
+ 2.3182 3 2 ack 40 ------- 1 3.0 0.0 16 37 0 0x0 0 0
- 2.3182 3 2 ack 40 ------- 1 3.0 0.0 16 37 0 0x0 0 0
r 2.39816 3 2 ack 40 ------- 1 3.0 0.0 16 33 0 0x0 0 0
+ 2.39816 2 0 ack 40 ------- 1 3.0 0.0 16 33 0 0x0 0 0
- 2.39816 2 0 ack 40 ------- 1 3.0 0.0 16 33 0 0x0 0 0
r 2.3982 2 3 tcp 1000 ------- 1 0.0 3.0 21 31 0 0x0 0 0
+ 2.3982 3 2 ack 40 ------- 1 3.0 0.0 16 38 0 0x0 0 0
- 2.3982 3 2 ack 40 ------- 1 3.0 0.0 16 38 0 0x0 0 0
r 2.3982 2 0 ack 40 ------- 1 3.0 0.0 16 33 0 0x0 0 0
r 2.4082 2 3 tcp 1000 ------- 1 0.0 3.0 22 32 0 0x0 0 0
+ 2.4082 3 2 ack 40 ------- 1 3.0 0.0 16 39 0 0x0 0 0
- 2.4082 3 2 ack 40 ------- 1 3.0 0.0 16 39 0 0x0 0 0
r 2.4086 3 2 ack 40 ------- 1 3.0 0.0 16 36 0 0x0 0 0
+ 2.4086 2 0 ack 40 ------- 1 3.0 0.0 16 36 0 0x0 0 0
- 2.4086 2 0 ack 40 ------- 1 3.0 0.0 16 36 0 0x0 0 0
r 2.40864 2 0 ack 40 ------- 1 3.0 0.0 16 36 0 0x0 0 0
r 2.4182 2 3 tcp 1000 ------- 1 0.0 3.0 23 34 0 0x0 0 0
+ 2.4182 3 2 ack 40 ------- 1 3.0 0.0 16 40 0 0x0 0 0
- 2.4182 3 2 ack 40 ------- 1 3.0 0.0 16 40 0 0x0 0 0
r 2.4186 3 2 ack 40 ------- 1 3.0 0.0 16 37 0 0x0 0 0
+ 2.4186 2 0 ack 40 ------- 1 3.0 0.0 16 37 0 0x0 0 0
- 2.4186 2 0 ack 40 ------- 1 3.0 0.0 16 37 0 0x0 0 0
r 2.41864 2 0 ack 40 ------- 1 3.0 0.0 16 37 0 0x0 0 0
E 2.41864 0 3 TCP FAST_RETX 1 25 8
E 2.41864 0 3 TCP SLOW_START 1 25 1
+ 2.41864 0 2 tcp 1000 ---A--- 1 0.0 3.0 17 41 0 0x0 0 0
- 2.41864 0 2 tcp 1000 ---A--- 1 0.0 3.0 17 41 0 0x0 0 0
r 2.41964 0 2 tcp 1000 ---A--- 1 0.0 3.0 17 41 0 0x0 0 0
+ 2.41964 2 3 tcp 1000 ---A--- 1 0.0 3.0 17 41 0 0x0 0 0
- 2.41964 2 3 tcp 1000 ---A--- 1 0.0 3.0 17 41 0 0x0 0 0
r 2.4282 2 3 tcp 1000 ------- 1 0.0 3.0 24 35 0 0x0 0 0
+ 2.4282 3 2 ack 40 ------- 1 3.0 0.0 16 42 0 0x0 0 0
- 2.4282 3 2 ack 40 ------- 1 3.0 0.0 16 42 0 0x0 0 0
r 2.4986 3 2 ack 40 ------- 1 3.0 0.0 16 38 0 0x0 0 0
+ 2.4986 2 0 ack 40 ------- 1 3.0 0.0 16 38 0 0x0 0 0
- 2.4986 2 0 ack 40 ------- 1 3.0 0.0 16 38 0 0x0 0 0
r 2.49864 2 0 ack 40 ------- 1 3.0 0.0 16 38 0 0x0 0 0
r 2.5086 3 2 ack 40 ------- 1 3.0 0.0 16 39 0 0x0 0 0
+ 2.5086 2 0 ack 40 ------- 1 3.0 0.0 16 39 0 0x0 0 0
- 2.5086 2 0 ack 40 ------- 1 3.0 0.0 16 39 0 0x0 0 0
r 2.50864 2 0 ack 40 ------- 1 3.0 0.0 16 39 0 0x0 0 0
r 2.5186 3 2 ack 40 ------- 1 3.0 0.0 16 40 0 0x0 0 0
+ 2.5186 2 0 ack 40 ------- 1 3.0 0.0 16 40 0 0x0 0 0
- 2.5186 2 0 ack 40 ------- 1 3.0 0.0 16 40 0 0x0 0 0
r 2.51864 2 0 ack 40 ------- 1 3.0 0.0 16 40 0 0x0 0 0
r 2.5286 3 2 ack 40 ------- 1 3.0 0.0 16 42 0 0x0 0 0
+ 2.5286 2 0 ack 40 ------- 1 3.0 0.0 16 42 0 0x0 0 0
- 2.5286 2 0 ack 40 ------- 1 3.0 0.0 16 42 0 0x0 0 0
r 2.52864 2 0 ack 40 ------- 1 3.0 0.0 16 42 0 0x0 0 0
r 2.52964 2 3 tcp 1000 ---A--- 1 0.0 3.0 17 41 0 0x0 0 0
+ 2.52964 3 2 ack 40 ------- 1 3.0 0.0 24 43 0 0x0 0 0
- 2.52964 3 2 ack 40 ------- 1 3.0 0.0 24 43 0 0x0 0 0
r 2.63004 3 2 ack 40 ------- 1 3.0 0.0 24 43 0 0x0 0 0
+ 2.63004 2 0 ack 40 ------- 1 3.0 0.0 24 43 0 0x0 0 0
- 2.63004 2 0 ack 40 ------- 1 3.0 0.0 24 43 0 0x0 0 0
r 2.63008 2 0 ack 40 ------- 1 3.0 0.0 24 43 0 0x0 0 0
+ 2.63008 0 2 tcp 1000 ------- 1 0.0 3.0 25 44 0 0x0 0 0
- 2.63008 0 2 tcp 1000 ------- 1 0.0 3.0 25 44 0 0x0 0 0
+ 2.63008 0 2 tcp 1000 ------- 1 0.0 3.0 26 45 0 0x0 0 0
r 2.63108 0 2 tcp 1000 ------- 1 0.0 3.0 25 44 0 0x0 0 0
+ 2.63108 2 3 tcp 1000 ------- 1 0.0 3.0 25 44 0 0x0 0 0
- 2.63108 2 3 tcp 1000 ------- 1 0.0 3.0 25 44 0 0x0 0 0
- 2.63108 0 2 tcp 1000 ------- 1 0.0 3.0 26 45 0 0x0 0 0
r 2.63208 0 2 tcp 1000 ------- 1 0.0 3.0 26 45 0 0x0 0 0
+ 2.63208 2 3 tcp 1000 ------- 1 0.0 3.0 26 45 0 0x0 0 0
- 2.64108 2 3 tcp 1000 ------- 1 0.0 3.0 26 45 0 0x0 0 0
r 2.74108 2 3 tcp 1000 ------- 1 0.0 3.0 25 44 0 0x0 0 0
r 2.75108 2 3 tcp 1000 ------- 1 0.0 3.0 26 45 0 0x0 0 0
+ 2.75108 3 2 ack 40 ------- 1 3.0 0.0 26 46 0 0x0 0 0
- 2.75108 3 2 ack 40 ------- 1 3.0 0.0 26 46 0 0x0 0 0
r 2.85148 3 2 ack 40 ------- 1 3.0 0.0 26 46 0 0x0 0 0
+ 2.85148 2 0 ack 40 ------- 1 3.0 0.0 26 46 0 0x0 0 0
- 2.85148 2 0 ack 40 ------- 1 3.0 0.0 26 46 0 0x0 0 0
r 2.85152 2 0 ack 40 ------- 1 3.0 0.0 26 46 0 0x0 0 0
+ 2.85152 0 2 tcp 1000 ------- 1 0.0 3.0 27 47 0 0x0 0 0
- 2.85152 0 2 tcp 1000 ------- 1 0.0 3.0 27 47 0 0x0 0 0
+ 2.85152 0 2 tcp 1000 ------- 1 0.0 3.0 28 48 0 0x0 0 0
+ 2.85152 0 2 tcp 1000 ------- 1 0.0 3.0 29 49 0 0x0 0 0
r 2.85252 0 2 tcp 1000 ------- 1 0.0 3.0 27 47 0 0x0 0 0
+ 2.85252 2 3 tcp 1000 ------- 1 0.0 3.0 27 47 0 0x0 0 0
- 2.85252 2 3 tcp 1000 ------- 1 0.0 3.0 27 47 0 0x0 0 0
- 2.85252 0 2 tcp 1000 ------- 1 0.0 3.0 28 48 0 0x0 0 0
r 2.85352 0 2 tcp 1000 ------- 1 0.0 3.0 28 48 0 0x0 0 0
+ 2.85352 2 3 tcp 1000 ------- 1 0.0 3.0 28 48 0 0x0 0 0
- 2.85352 0 2 tcp 1000 ------- 1 0.0 3.0 29 49 0 0x0 0 0
r 2.85452 0 2 tcp 1000 ------- 1 0.0 3.0 29 49 0 0x0 0 0
+ 2.85452 2 3 tcp 1000 ------- 1 0.0 3.0 29 49 0 0x0 0 0
- 2.86252 2 3 tcp 1000 ------- 1 0.0 3.0 28 48 0 0x0 0 0
- 2.87252 2 3 tcp 1000 ------- 1 0.0 3.0 29 49 0 0x0 0 0
r 2.96252 2 3 tcp 1000 ------- 1 0.0 3.0 27 47 0 0x0 0 0
r 2.97252 2 3 tcp 1000 ------- 1 0.0 3.0 28 48 0 0x0 0 0
+ 2.97252 3 2 ack 40 ------- 1 3.0 0.0 28 50 0 0x0 0 0
- 2.97252 3 2 ack 40 ------- 1 3.0 0.0 28 50 0 0x0 0 0
r 2.98252 2 3 tcp 1000 ------- 1 0.0 3.0 29 49 0 0x0 0 0
r 3.07292 3 2 ack 40 ------- 1 3.0 0.0 28 50 0 0x0 0 0
+ 3.07292 2 0 ack 40 ------- 1 3.0 0.0 28 50 0 0x0 0 0
- 3.07292 2 0 ack 40 ------- 1 3.0 0.0 28 50 0 0x0 0 0
r 3.07296 2 0 ack 40 ------- 1 3.0 0.0 28 50 0 0x0 0 0
+ 3.07296 0 2 tcp 1000 ------- 1 0.0 3.0 30 51 0 0x0 0 0
- 3.07296 0 2 tcp 1000 ------- 1 0.0 3.0 30 51 0 0x0 0 0
+ 3.07296 0 2 tcp 1000 ------- 1 0.0 3.0 31 52 0 0x0 0 0
+ 3.07296 0 2 tcp 1000 ------- 1 0.0 3.0 32 53 0 0x0 0 0
r 3.07396 0 2 tcp 1000 ------- 1 0.0 3.0 30 51 0 0x0 0 0
+ 3.07396 2 3 tcp 1000 ------- 1 0.0 3.0 30 51 0 0x0 0 0
- 3.07396 2 3 tcp 1000 ------- 1 0.0 3.0 30 51 0 0x0 0 0
- 3.07396 0 2 tcp 1000 ------- 1 0.0 3.0 31 52 0 0x0 0 0
r 3.07496 0 2 tcp 1000 ------- 1 0.0 3.0 31 52 0 0x0 0 0
+ 3.07496 2 3 tcp 1000 ------- 1 0.0 3.0 31 52 0 0x0 0 0
- 3.07496 0 2 tcp 1000 ------- 1 0.0 3.0 32 53 0 0x0 0 0
r 3.07596 0 2 tcp 1000 ------- 1 0.0 3.0 32 53 0 0x0 0 0
+ 3.07596 2 3 tcp 1000 ------- 1 0.0 3.0 32 53 0 0x0 0 0
+ 3.08252 3 2 ack 40 ------- 1 3.0 0.0 29 54 0 0x0 0 0
- 3.08252 3 2 ack 40 ------- 1 3.0 0.0 29 54 0 0x0 0 0
- 3.08396 2 3 tcp 1000 ------- 1 0.0 3.0 31 52 0 0x0 0 0
- 3.09396 2 3 tcp 1000 ------- 1 0.0 3.0 32 53 0 0x0 0 0
r 3.18292 3 2 ack 40 ------- 1 3.0 0.0 29 54 0 0x0 0 0
+ 3.18292 2 0 ack 40 ------- 1 3.0 0.0 29 54 0 0x0 0 0
- 3.18292 2 0 ack 40 ------- 1 3.0 0.0 29 54 0 0x0 0 0
r 3.18296 2 0 ack 40 ------- 1 3.0 0.0 29 54 0 0x0 0 0
+ 3.18296 0 2 tcp 1000 ------- 1 0.0 3.0 33 55 0 0x0 0 0
- 3.18296 0 2 tcp 1000 ------- 1 0.0 3.0 33 55 0 0x0 0 0
r 3.18396 2 3 tcp 1000 ------- 1 0.0 3.0 30 51 0 0x0 0 0
r 3.18396 0 2 tcp 1000 ------- 1 0.0 3.0 33 55 0 0x0 0 0
+ 3.18396 2 3 tcp 1000 ------- 1 0.0 3.0 33 55 0 0x0 0 0
- 3.18396 2 3 tcp 1000 ------- 1 0.0 3.0 33 55 0 0x0 0 0
r 3.19396 2 3 tcp 1000 ------- 1 0.0 3.0 31 52 0 0x0 0 0
+ 3.19396 3 2 ack 40 ------- 1 3.0 0.0 31 56 0 0x0 0 0
- 3.19396 3 2 ack 40 ------- 1 3.0 0.0 31 56 0 0x0 0 0
r 3.20396 2 3 tcp 1000 ------- 1 0.0 3.0 32 53 0 0x0 0 0
r 3.29396 2 3 tcp 1000 ------- 1 0.0 3.0 33 55 0 0x0 0 0
+ 3.29396 3 2 ack 40 ------- 1 3.0 0.0 33 57 0 0x0 0 0
- 3.29396 3 2 ack 40 ------- 1 3.0 0.0 33 57 0 0x0 0 0
r 3.29436 3 2 ack 40 ------- 1 3.0 0.0 31 56 0 0x0 0 0
+ 3.29436 2 0 ack 40 ------- 1 3.0 0.0 31 56 0 0x0 0 0
- 3.29436 2 0 ack 40 ------- 1 3.0 0.0 31 56 0 0x0 0 0
r 3.2944 2 0 ack 40 ------- 1 3.0 0.0 31 56 0 0x0 0 0
+ 3.2944 0 2 tcp 1000 ------- 1 0.0 3.0 34 58 0 0x0 0 0
- 3.2944 0 2 tcp 1000 ------- 1 0.0 3.0 34 58 0 0x0 0 0
+ 3.2944 0 2 tcp 1000 ------- 1 0.0 3.0 35 59 0 0x0 0 0
r 3.2954 0 2 tcp 1000 ------- 1 0.0 3.0 34 58 0 0x0 0 0
+ 3.2954 2 3 tcp 1000 ------- 1 0.0 3.0 34 58 0 0x0 0 0
- 3.2954 2 3 tcp 1000 ------- 1 0.0 3.0 34 58 0 0x0 0 0
- 3.2954 0 2 tcp 1000 ------- 1 0.0 3.0 35 59 0 0x0 0 0
r 3.2964 0 2 tcp 1000 ------- 1 0.0 3.0 35 59 0 0x0 0 0
+ 3.2964 2 3 tcp 1000 ------- 1 0.0 3.0 35 59 0 0x0 0 0
- 3.3054 2 3 tcp 1000 ------- 1 0.0 3.0 35 59 0 0x0 0 0
r 3.39436 3 2 ack 40 ------- 1 3.0 0.0 33 57 0 0x0 0 0
+ 3.39436 2 0 ack 40 ------- 1 3.0 0.0 33 57 0 0x0 0 0
- 3.39436 2 0 ack 40 ------- 1 3.0 0.0 33 57 0 0x0 0 0
r 3.3944 2 0 ack 40 ------- 1 3.0 0.0 33 57 0 0x0 0 0
+ 3.3944 0 2 tcp 1000 ------- 1 0.0 3.0 36 60 0 0x0 0 0
- 3.3944 0 2 tcp 1000 ------- 1 0.0 3.0 36 60 0 0x0 0 0
+ 3.3944 0 2 tcp 1000 ------- 1 0.0 3.0 37 61 0 0x0 0 0
r 3.3954 0 2 tcp 1000 ------- 1 0.0 3.0 36 60 0 0x0 0 0
+ 3.3954 2 3 tcp 1000 ------- 1 0.0 3.0 36 60 0 0x0 0 0
- 3.3954 2 3 tcp 1000 ------- 1 0.0 3.0 36 60 0 0x0 0 0
- 3.3954 0 2 tcp 1000 ------- 1 0.0 3.0 37 61 0 0x0 0 0
r 3.3964 0 2 tcp 1000 ------- 1 0.0 3.0 37 61 0 0x0 0 0
+ 3.3964 2 3 tcp 1000 ------- 1 0.0 3.0 37 61 0 0x0 0 0
r 3.4054 2 3 tcp 1000 ------- 1 0.0 3.0 34 58 0 0x0 0 0
- 3.4054 2 3 tcp 1000 ------- 1 0.0 3.0 37 61 0 0x0 0 0
r 3.4154 2 3 tcp 1000 ------- 1 0.0 3.0 35 59 0 0x0 0 0
+ 3.4154 3 2 ack 40 ------- 1 3.0 0.0 35 62 0 0x0 0 0
- 3.4154 3 2 ack 40 ------- 1 3.0 0.0 35 62 0 0x0 0 0
r 3.5054 2 3 tcp 1000 ------- 1 0.0 3.0 36 60 0 0x0 0 0
r 3.5154 2 3 tcp 1000 ------- 1 0.0 3.0 37 61 0 0x0 0 0
+ 3.5154 3 2 ack 40 ------- 1 3.0 0.0 37 63 0 0x0 0 0
- 3.5154 3 2 ack 40 ------- 1 3.0 0.0 37 63 0 0x0 0 0
r 3.5158 3 2 ack 40 ------- 1 3.0 0.0 35 62 0 0x0 0 0
+ 3.5158 2 0 ack 40 ------- 1 3.0 0.0 35 62 0 0x0 0 0
- 3.5158 2 0 ack 40 ------- 1 3.0 0.0 35 62 0 0x0 0 0
r 3.51584 2 0 ack 40 ------- 1 3.0 0.0 35 62 0 0x0 0 0
+ 3.51584 0 2 tcp 1000 ------- 1 0.0 3.0 38 64 0 0x0 0 0
- 3.51584 0 2 tcp 1000 ------- 1 0.0 3.0 38 64 0 0x0 0 0
+ 3.51584 0 2 tcp 1000 ------- 1 0.0 3.0 39 65 0 0x0 0 0
r 3.51684 0 2 tcp 1000 ------- 1 0.0 3.0 38 64 0 0x0 0 0
+ 3.51684 2 3 tcp 1000 ------- 1 0.0 3.0 38 64 0 0x0 0 0
- 3.51684 2 3 tcp 1000 ------- 1 0.0 3.0 38 64 0 0x0 0 0
- 3.51684 0 2 tcp 1000 ------- 1 0.0 3.0 39 65 0 0x0 0 0
r 3.51784 0 2 tcp 1000 ------- 1 0.0 3.0 39 65 0 0x0 0 0
+ 3.51784 2 3 tcp 1000 ------- 1 0.0 3.0 39 65 0 0x0 0 0
- 3.52684 2 3 tcp 1000 ------- 1 0.0 3.0 39 65 0 0x0 0 0
r 3.6158 3 2 ack 40 ------- 1 3.0 0.0 37 63 0 0x0 0 0
+ 3.6158 2 0 ack 40 ------- 1 3.0 0.0 37 63 0 0x0 0 0
- 3.6158 2 0 ack 40 ------- 1 3.0 0.0 37 63 0 0x0 0 0
r 3.61584 2 0 ack 40 ------- 1 3.0 0.0 37 63 0 0x0 0 0
+ 3.61584 0 2 tcp 1000 ------- 1 0.0 3.0 40 66 0 0x0 0 0
- 3.61584 0 2 tcp 1000 ------- 1 0.0 3.0 40 66 0 0x0 0 0
+ 3.61584 0 2 tcp 1000 ------- 1 0.0 3.0 41 67 0 0x0 0 0
+ 3.61584 0 2 tcp 1000 ------- 1 0.0 3.0 42 68 0 0x0 0 0
r 3.61684 0 2 tcp 1000 ------- 1 0.0 3.0 40 66 0 0x0 0 0
+ 3.61684 2 3 tcp 1000 ------- 1 0.0 3.0 40 66 0 0x0 0 0
- 3.61684 2 3 tcp 1000 ------- 1 0.0 3.0 40 66 0 0x0 0 0
- 3.61684 0 2 tcp 1000 ------- 1 0.0 3.0 41 67 0 0x0 0 0
r 3.61784 0 2 tcp 1000 ------- 1 0.0 3.0 41 67 0 0x0 0 0
+ 3.61784 2 3 tcp 1000 ------- 1 0.0 3.0 41 67 0 0x0 0 0
- 3.61784 0 2 tcp 1000 ------- 1 0.0 3.0 42 68 0 0x0 0 0
r 3.61884 0 2 tcp 1000 ------- 1 0.0 3.0 42 68 0 0x0 0 0
+ 3.61884 2 3 tcp 1000 ------- 1 0.0 3.0 42 68 0 0x0 0 0
r 3.62684 2 3 tcp 1000 ------- 1 0.0 3.0 38 64 0 0x0 0 0
- 3.62684 2 3 tcp 1000 ------- 1 0.0 3.0 41 67 0 0x0 0 0
r 3.63684 2 3 tcp 1000 ------- 1 0.0 3.0 39 65 0 0x0 0 0
+ 3.63684 3 2 ack 40 ------- 1 3.0 0.0 39 69 0 0x0 0 0
- 3.63684 3 2 ack 40 ------- 1 3.0 0.0 39 69 0 0x0 0 0
- 3.63684 2 3 tcp 1000 ------- 1 0.0 3.0 42 68 0 0x0 0 0
r 3.72684 2 3 tcp 1000 ------- 1 0.0 3.0 40 66 0 0x0 0 0
r 3.73684 2 3 tcp 1000 ------- 1 0.0 3.0 41 67 0 0x0 0 0
+ 3.73684 3 2 ack 40 ------- 1 3.0 0.0 41 70 0 0x0 0 0
- 3.73684 3 2 ack 40 ------- 1 3.0 0.0 41 70 0 0x0 0 0
r 3.73724 3 2 ack 40 ------- 1 3.0 0.0 39 69 0 0x0 0 0
+ 3.73724 2 0 ack 40 ------- 1 3.0 0.0 39 69 0 0x0 0 0
- 3.73724 2 0 ack 40 ------- 1 3.0 0.0 39 69 0 0x0 0 0
r 3.73728 2 0 ack 40 ------- 1 3.0 0.0 39 69 0 0x0 0 0
+ 3.73728 0 2 tcp 1000 ------- 1 0.0 3.0 43 71 0 0x0 0 0
- 3.73728 0 2 tcp 1000 ------- 1 0.0 3.0 43 71 0 0x0 0 0
+ 3.73728 0 2 tcp 1000 ------- 1 0.0 3.0 44 72 0 0x0 0 0
r 3.73828 0 2 tcp 1000 ------- 1 0.0 3.0 43 71 0 0x0 0 0
+ 3.73828 2 3 tcp 1000 ------- 1 0.0 3.0 43 71 0 0x0 0 0
- 3.73828 2 3 tcp 1000 ------- 1 0.0 3.0 43 71 0 0x0 0 0
- 3.73828 0 2 tcp 1000 ------- 1 0.0 3.0 44 72 0 0x0 0 0
r 3.73928 0 2 tcp 1000 ------- 1 0.0 3.0 44 72 0 0x0 0 0
+ 3.73928 2 3 tcp 1000 ------- 1 0.0 3.0 44 72 0 0x0 0 0
r 3.74684 2 3 tcp 1000 ------- 1 0.0 3.0 42 68 0 0x0 0 0
- 3.74828 2 3 tcp 1000 ------- 1 0.0 3.0 44 72 0 0x0 0 0
r 3.83724 3 2 ack 40 ------- 1 3.0 0.0 41 70 0 0x0 0 0
+ 3.83724 2 0 ack 40 ------- 1 3.0 0.0 41 70 0 0x0 0 0
- 3.83724 2 0 ack 40 ------- 1 3.0 0.0 41 70 0 0x0 0 0
r 3.83728 2 0 ack 40 ------- 1 3.0 0.0 41 70 0 0x0 0 0
+ 3.83728 0 2 tcp 1000 ------- 1 0.0 3.0 45 73 0 0x0 0 0
- 3.83728 0 2 tcp 1000 ------- 1 0.0 3.0 45 73 0 0x0 0 0
+ 3.83728 0 2 tcp 1000 ------- 1 0.0 3.0 46 74 0 0x0 0 0
r 3.83828 0 2 tcp 1000 ------- 1 0.0 3.0 45 73 0 0x0 0 0
+ 3.83828 2 3 tcp 1000 ------- 1 0.0 3.0 45 73 0 0x0 0 0
- 3.83828 2 3 tcp 1000 ------- 1 0.0 3.0 45 73 0 0x0 0 0
- 3.83828 0 2 tcp 1000 ------- 1 0.0 3.0 46 74 0 0x0 0 0
r 3.83928 0 2 tcp 1000 ------- 1 0.0 3.0 46 74 0 0x0 0 0
+ 3.83928 2 3 tcp 1000 ------- 1 0.0 3.0 46 74 0 0x0 0 0
+ 3.84684 3 2 ack 40 ------- 1 3.0 0.0 42 75 0 0x0 0 0
- 3.84684 3 2 ack 40 ------- 1 3.0 0.0 42 75 0 0x0 0 0
r 3.84828 2 3 tcp 1000 ------- 1 0.0 3.0 43 71 0 0x0 0 0
- 3.84828 2 3 tcp 1000 ------- 1 0.0 3.0 46 74 0 0x0 0 0
r 3.85828 2 3 tcp 1000 ------- 1 0.0 3.0 44 72 0 0x0 0 0
+ 3.85828 3 2 ack 40 ------- 1 3.0 0.0 44 76 0 0x0 0 0
- 3.85828 3 2 ack 40 ------- 1 3.0 0.0 44 76 0 0x0 0 0
r 3.94724 3 2 ack 40 ------- 1 3.0 0.0 42 75 0 0x0 0 0
+ 3.94724 2 0 ack 40 ------- 1 3.0 0.0 42 75 0 0x0 0 0
- 3.94724 2 0 ack 40 ------- 1 3.0 0.0 42 75 0 0x0 0 0
r 3.94728 2 0 ack 40 ------- 1 3.0 0.0 42 75 0 0x0 0 0
+ 3.94728 0 2 tcp 1000 ------- 1 0.0 3.0 47 77 0 0x0 0 0
- 3.94728 0 2 tcp 1000 ------- 1 0.0 3.0 47 77 0 0x0 0 0
r 3.94828 2 3 tcp 1000 ------- 1 0.0 3.0 45 73 0 0x0 0 0
r 3.94828 0 2 tcp 1000 ------- 1 0.0 3.0 47 77 0 0x0 0 0
+ 3.94828 2 3 tcp 1000 ------- 1 0.0 3.0 47 77 0 0x0 0 0
- 3.94828 2 3 tcp 1000 ------- 1 0.0 3.0 47 77 0 0x0 0 0
r 3.95828 2 3 tcp 1000 ------- 1 0.0 3.0 46 74 0 0x0 0 0
+ 3.95828 3 2 ack 40 ------- 1 3.0 0.0 46 78 0 0x0 0 0
- 3.95828 3 2 ack 40 ------- 1 3.0 0.0 46 78 0 0x0 0 0
r 3.95868 3 2 ack 40 ------- 1 3.0 0.0 44 76 0 0x0 0 0
+ 3.95868 2 0 ack 40 ------- 1 3.0 0.0 44 76 0 0x0 0 0
- 3.95868 2 0 ack 40 ------- 1 3.0 0.0 44 76 0 0x0 0 0
r 3.95872 2 0 ack 40 ------- 1 3.0 0.0 44 76 0 0x0 0 0
+ 3.95872 0 2 tcp 1000 ------- 1 0.0 3.0 48 79 0 0x0 0 0
- 3.95872 0 2 tcp 1000 ------- 1 0.0 3.0 48 79 0 0x0 0 0
+ 3.95872 0 2 tcp 1000 ------- 1 0.0 3.0 49 80 0 0x0 0 0
r 3.95972 0 2 tcp 1000 ------- 1 0.0 3.0 48 79 0 0x0 0 0
+ 3.95972 2 3 tcp 1000 ------- 1 0.0 3.0 48 79 0 0x0 0 0
- 3.95972 2 3 tcp 1000 ------- 1 0.0 3.0 48 79 0 0x0 0 0
- 3.95972 0 2 tcp 1000 ------- 1 0.0 3.0 49 80 0 0x0 0 0
r 3.96072 0 2 tcp 1000 ------- 1 0.0 3.0 49 80 0 0x0 0 0
+ 3.96072 2 3 tcp 1000 ------- 1 0.0 3.0 49 80 0 0x0 0 0
- 3.96972 2 3 tcp 1000 ------- 1 0.0 3.0 49 80 0 0x0 0 0
